 Entering Gaussian System, Link 0=/usr/local/g09/g09
 Initial command:
 /usr/local/g09/l1.exe /scratch/webmodemo/webmo-4350/188726/Gau-18137.inp -scrdir=/scratch/webmodemo/webmo-4350/188726/
 Entering Link 1 = /usr/local/g09/l1.exe PID=     18138.
  
 Copyright (c) 1988,1990,1992,1993,1995,1998,2003,2009, Gaussian, Inc.
                  All Rights Reserved.
  
 This is part of the Gaussian(R) 09 program.  It is based on
 the Gaussian(R) 03 system (copyright 2003, Gaussian, Inc.),
 the Gaussian(R) 98 system (copyright 1998, Gaussian, Inc.),
 the Gaussian(R) 94 system (copyright 1995, Gaussian, Inc.),
 the Gaussian 92(TM) system (copyright 1992, Gaussian, Inc.),
 the Gaussian 90(TM) system (copyright 1990, Gaussian, Inc.),
 the Gaussian 88(TM) system (copyright 1988, Gaussian, Inc.),
 the Gaussian 86(TM) system (copyright 1986, Carnegie Mellon
 University), and the Gaussian 82(TM) system (copyright 1983,
 Carnegie Mellon University). Gaussian is a federally registered
 trademark of Gaussian, Inc.
  
 This software contains proprietary and confidential information,
 including trade secrets, belonging to Gaussian, Inc.
  
 This software is provided under written license and may be
 used, copied, transmitted, or stored only in accord with that
 written license.
  
 The following legend is applicable only to US Government
 contracts under FAR:
  
                    RESTRICTED RIGHTS LEGEND
  
 Use, reproduction and disclosure by the US Government is
 subject to restrictions as set forth in subparagraphs (a)
 and (c) of the Commercial Computer Software - Restricted
 Rights clause in FAR 52.227-19.
  
 Gaussian, Inc.
 340 Quinnipiac St., Bldg. 40, Wallingford CT 06492
  
  
 ---------------------------------------------------------------
 Warning -- This program may not be used in any manner that
 competes with the business of Gaussian, Inc. or will provide
 assistance to any competitor of Gaussian, Inc.  The licensee
 of this program is prohibited from giving any competitor of
 Gaussian, Inc. access to this program.  By using this program,
 the user acknowledges that Gaussian, Inc. is engaged in the
 business of creating and licensing software in the field of
 computational chemistry and represents and warrants to the
 licensee that it is not a competitor of Gaussian, Inc. and that
 it will not use this program in any manner prohibited above.
 ---------------------------------------------------------------
  

 Cite this work as:
 Gaussian 09, Revision A.02,
 M. J. Frisch, G. W. Trucks, H. B. Schlegel, G. E. Scuseria, 
 M. A. Robb, J. R. Cheeseman, G. Scalmani, V. Barone, B. Mennucci, 
 G. A. Petersson, H. Nakatsuji, M. Caricato, X. Li, H. P. Hratchian, 
 A. F. Izmaylov, J. Bloino, G. Zheng, J. L. Sonnenberg, M. Hada, 
 M. Ehara, K. Toyota, R. Fukuda, J. Hasegawa, M. Ishida, T. Nakajima, 
 Y. Honda, O. Kitao, H. Nakai, T. Vreven, J. A. Montgomery, Jr., 
 J. E. Peralta, F. Ogliaro, M. Bearpark, J. J. Heyd, E. Brothers, 
 K. N. Kudin, V. N. Staroverov, R. Kobayashi, J. Normand, 
 K. Raghavachari, A. Rendell, J. C. Burant, S. S. Iyengar, J. Tomasi, 
 M. Cossi, N. Rega, J. M. Millam, M. Klene, J. E. Knox, J. B. Cross, 
 V. Bakken, C. Adamo, J. Jaramillo, R. Gomperts, R. E. Stratmann, 
 O. Yazyev, A. J. Austin, R. Cammi, C. Pomelli, J. W. Ochterski, 
 R. L. Martin, K. Morokuma, V. G. Zakrzewski, G. A. Voth, 
 P. Salvador, J. J. Dannenberg, S. Dapprich, A. D. Daniels, 
 O. Farkas, J. B. Foresman, J. V. Ortiz, J. Cioslowski, 
 and D. J. Fox, Gaussian, Inc., Wallingford CT, 2009.
 
 ******************************************
 Gaussian 09:  AM64L-G09RevA.02 11-Jun-2009
                20-Mar-2015 
 ******************************************
 --------------------------------------------
 #N B3LYP/6-31G(d) OPT FREQ Geom=Connectivity
 --------------------------------------------
 1/14=-1,18=20,19=15,26=3,38=1,57=2/1,3;
 2/9=110,12=2,17=6,18=5,40=1/2;
 3/5=1,6=6,7=1,11=2,16=1,25=1,30=1,71=1,74=-5/1,2,3;
 4//1;
 5/5=2,38=5/2;
 6/7=2,8=2,9=2,10=2,28=1/1;
 7//1,2,3,16;
 1/14=-1,18=20,19=15/3(2);
 2/9=110/2;
 99//99;
 2/9=110/2;
 3/5=1,6=6,7=1,11=2,16=1,25=1,30=1,71=1,74=-5/1,2,3;
 4/5=5,16=3/1;
 5/5=2,38=5/2;
 7//1,2,3,16;
 1/14=-1,18=20,19=15/3(-5);
 2/9=110/2;
 6/7=2,8=2,9=2,10=2,19=2,28=1/1;
 99/9=1/99;
 ---
 H2O
 ---
 Symbolic Z-matrix:
 Charge =  0 Multiplicity = 1
 O
 H                    1    B1
 H                    1    B2       2    A1
       Variables:
  B1                    0.96697                  
  B2                    0.96697                  
  A1                  114.00691                  
 

 GradGradGradGradGradGradGradGradGradGradGradGradGradGradGradGradGradGrad
 Berny optimization.
 Initialization pass.
                           ----------------------------
                           !    Initial Parameters    !
                           ! (Angstroms and Degrees)  !
 --------------------------                            --------------------------
 ! Name  Definition              Value          Derivative Info.                !
 --------------------------------------------------------------------------------
 ! R1    R(1,2)                  0.967          estimate D2E/DX2                !
 ! R2    R(1,3)                  0.967          estimate D2E/DX2                !
 ! A1    A(2,1,3)              114.0069         estimate D2E/DX2                !
 --------------------------------------------------------------------------------
 Trust Radius=3.00D-01 FncErr=1.00D-07 GrdErr=1.00D-06
 Number of steps in this run=  20 maximum allowed number of steps= 100.
 GradGradGradGradGradGradGradGradGradGradGradGradGradGradGradGradGradGrad

                          Input orientation:                          
 ---------------------------------------------------------------------
 Center     Atomic      Atomic             Coordinates (Angstroms)
 Number     Number       Type             X           Y           Z
 ---------------------------------------------------------------------
      1          8           0        0.000000    0.000000    0.000000
      2          1           0        0.000000    0.000000    0.966969
      3          1           0        0.883322    0.000000   -0.393408
 ---------------------------------------------------------------------
                    Distance matrix (angstroms):
                    1          2          3
     1  O    0.000000
     2  H    0.966969   0.000000
     3  H    0.966969   1.622000   0.000000
 Stoichiometry    H2O
 Framework group  C2V[C2(O),SGV(H2)]
 Deg. of freedom     2
 Full point group                 C2V     NOp   4
 Largest Abelian subgroup         C2V     NOp   4
 Largest concise Abelian subgroup C2      NOp   2
                         Standard orientation:                         
 ---------------------------------------------------------------------
 Center     Atomic      Atomic             Coordinates (Angstroms)
 Number     Number       Type             X           Y           Z
 ---------------------------------------------------------------------
      1          8           0        0.000000    0.000000    0.105320
      2          1           0        0.000000    0.811000   -0.421280
      3          1           0        0.000000   -0.811000   -0.421280
 ---------------------------------------------------------------------
 Rotational constants (GHZ):   1018.0890279    381.2065971    277.3554401
 Standard basis: 6-31G(d) (6D, 7F)
 There are    10 symmetry adapted basis functions of A1  symmetry.
 There are     1 symmetry adapted basis functions of A2  symmetry.
 There are     3 symmetry adapted basis functions of B1  symmetry.
 There are     5 symmetry adapted basis functions of B2  symmetry.
 Integral buffers will be    131072 words long.
 Raffenetti 2 integral format.
 Two-electron integral symmetry is turned on.
    19 basis functions,    36 primitive gaussians,    19 cartesian basis functions
     5 alpha electrons        5 beta electrons
       nuclear repulsion energy         9.0823092035 Hartrees.
 NAtoms=    3 NActive=    3 NUniq=    2 SFac= 1.69D+00 NAtFMM=   80 NAOKFM=F Big=F
 One-electron integrals computed using PRISM.
 NBasis=    19 RedAO= T  NBF=    10     1     3     5
 NBsUse=    19 1.00D-06 NBFU=    10     1     3     5
 Harris functional with IExCor=  402 diagonalized for initial guess.
 ExpMin= 1.61D-01 ExpMax= 5.48D+03 ExpMxC= 8.25D+02 IAcc=1 IRadAn=         1 AccDes= 0.00D+00
 HarFok:  IExCor=  402 AccDes= 0.00D+00 IRadAn=         1 IDoV= 1
 ScaDFX=  1.000000  1.000000  1.000000  1.000000
 FoFCou: FMM=F IPFlag=           0 FMFlag=      100000 FMFlg1=           0
         NFxFlg=           0 DoJE=T BraDBF=F KetDBF=T FulRan=T
         Omega=  0.000000  0.000000  1.000000  0.000000  0.000000 ICntrl=     500 IOpCl=  0
         NMat0=    1 NMatS0=    1 NMatT0=    0 NMatD0=    1 NMtDS0=    0 NMtDT0=    0
         I1Cent=           4 NGrid=           0.
 Petite list used in FoFCou.
 Initial guess orbital symmetries:
       Occupied  (A1) (A1) (B2) (A1) (B1)
       Virtual   (A1) (B2) (A1) (B2) (B1) (A1) (B2) (A1) (A2) (A1)
                 (B1) (A1) (B2) (A1)
 The electronic state of the initial guess is 1-A1.
 Requested convergence on RMS density matrix=1.00D-08 within 128 cycles.
 Requested convergence on MAX density matrix=1.00D-06.
 Requested convergence on             energy=1.00D-06.
 No special actions if energy rises.
 Keep R1 ints in memory in canonical form, NReq=920381.
 Integral accuracy reduced to 1.0D-05 until final iterations.
 Initial convergence to 1.0D-05 achieved.  Increase integral accuracy.
 SCF Done:  E(RB3LYP) =  -76.4062596556     A.U. after    9 cycles
             Convg  =    0.2178D-08             -V/T =  2.0080

 **********************************************************************

            Population analysis using the SCF density.

 **********************************************************************

 Orbital symmetries:
       Occupied  (A1) (A1) (B2) (A1) (B1)
       Virtual   (A1) (B2) (B2) (A1) (A1) (B1) (B2) (A1) (A2) (A1)
                 (B1) (A1) (B2) (A1)
 The electronic state is 1-A1.
 Alpha  occ. eigenvalues --  -19.13198  -0.98977  -0.53400  -0.35124  -0.28758
 Alpha virt. eigenvalues --    0.06314   0.15154   0.81731   0.81989   0.89331
 Alpha virt. eigenvalues --    0.89346   1.07815   1.16216   1.73844   1.75994
 Alpha virt. eigenvalues --    1.79182   2.30542   2.57009   3.56975
          Condensed to atoms (all electrons):
              1          2          3
     1  O    8.300984   0.246565   0.246565
     2  H    0.246565   0.375126  -0.018748
     3  H    0.246565  -0.018748   0.375126
 Mulliken atomic charges:
              1
     1  O   -0.794114
     2  H    0.397057
     3  H    0.397057
 Sum of Mulliken atomic charges =   0.00000
 Mulliken charges with hydrogens summed into heavy atoms:
              1
     1  O    0.000000
 Sum of Mulliken charges with hydrogens summed into heavy atoms =   0.00000
 Electronic spatial extent (au):  <R**2>=             19.1235
 Charge=              0.0000 electrons
 Dipole moment (field-independent basis, Debye):
    X=              0.0000    Y=              0.0000    Z=             -1.9263  Tot=              1.9263
 Quadrupole moment (field-independent basis, Debye-Ang):
   XX=             -7.1980   YY=             -3.8283   ZZ=             -6.2460
   XY=              0.0000   XZ=              0.0000   YZ=              0.0000
 Traceless Quadrupole moment (field-independent basis, Debye-Ang):
   XX=             -1.4406   YY=              1.9291   ZZ=             -0.4886
   XY=              0.0000   XZ=              0.0000   YZ=              0.0000
 Octapole moment (field-independent basis, Debye-Ang**2):
  XXX=              0.0000  YYY=              0.0000  ZZZ=             -1.0483  XYY=              0.0000
  XXY=              0.0000  XXZ=             -0.2982  XZZ=              0.0000  YZZ=              0.0000
  YYZ=             -1.2352  XYZ=              0.0000
 Hexadecapole moment (field-independent basis, Debye-Ang**3):
 XXXX=             -5.2083 YYYY=             -5.6994 ZZZZ=             -6.0784 XXXY=              0.0000
 XXXZ=              0.0000 YYYX=              0.0000 YYYZ=              0.0000 ZZZX=              0.0000
 ZZZY=              0.0000 XXYY=             -2.1410 XXZZ=             -1.9116 YYZZ=             -1.7730
 XXYZ=              0.0000 YYXZ=              0.0000 ZZXY=              0.0000
 N-N= 9.082309203532D+00 E-N=-1.987656663980D+02  KE= 7.580254940339D+01
 Symmetry A1   KE= 6.769048437986D+01
 Symmetry A2   KE= 8.350372524550D-35
 Symmetry B1   KE= 4.587132420027D+00
 Symmetry B2   KE= 3.524932603496D+00
 Calling FoFJK, ICntrl=      2127 FMM=F ISym2X=1 I1Cent= 0 IOpClX= 0 NMat=1 NMatS=1 NMatT=0.
 ***** Axes restored to original set *****
 -------------------------------------------------------------------
 Center     Atomic                   Forces (Hartrees/Bohr)
 Number     Number              X              Y              Z
 -------------------------------------------------------------------
      1        8          -0.018986643    0.000000000   -0.012328442
      2        1           0.015817742    0.000000000   -0.003575818
      3        1           0.003168901    0.000000000    0.015904260
 -------------------------------------------------------------------
 Cartesian Forces:  Max     0.018986643 RMS     0.010741705

 GradGradGradGradGradGradGradGradGradGradGradGradGradGradGradGradGradGrad
 Berny optimization.
 Internal  Forces:  Max     0.028903855 RMS     0.016941131
 Search for a local minimum.
 Step number   1 out of a maximum of   20
 All quantities printed in internal units (Hartrees-Bohrs-Radians)
 Mixed Optimization -- RFO/linear search
 Second derivative matrix not updated -- first step.
 The second derivative matrix:
                          R1        R2        A1
           R1           0.54001
           R2           0.00000   0.54001
           A1           0.00000   0.00000   0.16000
     Eigenvalues ---    0.16000   0.54001   0.54001
 RFO step:  Lambda=-5.10686007D-03 EMin= 1.60000000D-01
 Linear search not attempted -- first point.
 Iteration  1 RMS(Cart)=  0.09737839 RMS(Int)=  0.00571760
 Iteration  2 RMS(Cart)=  0.00495230 RMS(Int)=  0.00000008
 Iteration  3 RMS(Cart)=  0.00000008 RMS(Int)=  0.00000000
 ClnCor:  largest displacement from symmetrization is 3.97D-15 for atom     3.
 Variable       Old X    -DE/DX   Delta X   Delta X   Delta X     New X
                                 (Linear)    (Quad)   (Total)
    R1        1.82731  -0.00358   0.00000  -0.00656  -0.00656   1.82075
    R2        1.82731  -0.00358   0.00000  -0.00656  -0.00656   1.82075
    A1        1.98980  -0.02890   0.00000  -0.17506  -0.17506   1.81473
         Item               Value     Threshold  Converged?
 Maximum Force            0.028904     0.000450     NO 
 RMS     Force            0.016941     0.000300     NO 
 Maximum Displacement     0.105113     0.001800     NO 
 RMS     Displacement     0.099707     0.001200     NO 
 Predicted change in Energy=-2.631906D-03
 GradGradGradGradGradGradGradGradGradGradGradGradGradGradGradGradGradGrad

                          Input orientation:                          
 ---------------------------------------------------------------------
 Center     Atomic      Atomic             Coordinates (Angstroms)
 Number     Number       Type             X           Y           Z
 ---------------------------------------------------------------------
      1          8           0       -0.037318    0.000000   -0.024232
      2          1           0        0.046910    0.000000    0.935577
      3          1           0        0.873731    0.000000   -0.337785
 ---------------------------------------------------------------------
                    Distance matrix (angstroms):
                    1          2          3
     1  O    0.000000
     2  H    0.963497   0.000000
     3  H    0.963497   1.518251   0.000000
 Stoichiometry    H2O
 Framework group  C2V[C2(O),SGV(H2)]
 Deg. of freedom     2
 Full point group                 C2V     NOp   4
 Largest Abelian subgroup         C2V     NOp   4
 Largest concise Abelian subgroup C2      NOp   2
                         Standard orientation:                         
 ---------------------------------------------------------------------
 Center     Atomic      Atomic             Coordinates (Angstroms)
 Number     Number       Type             X           Y           Z
 ---------------------------------------------------------------------
      1          8           0        0.000000    0.000000    0.118669
      2          1           0        0.000000    0.759125   -0.474675
      3          1           0        0.000000   -0.759125   -0.474675
 ---------------------------------------------------------------------
 Rotational constants (GHZ):    801.9284683    435.0859794    282.0563929
 Standard basis: 6-31G(d) (6D, 7F)
 There are    10 symmetry adapted basis functions of A1  symmetry.
 There are     1 symmetry adapted basis functions of A2  symmetry.
 There are     3 symmetry adapted basis functions of B1  symmetry.
 There are     5 symmetry adapted basis functions of B2  symmetry.
 Integral buffers will be    131072 words long.
 Raffenetti 2 integral format.
 Two-electron integral symmetry is turned on.
    19 basis functions,    36 primitive gaussians,    19 cartesian basis functions
     5 alpha electrons        5 beta electrons
       nuclear repulsion energy         9.1361493793 Hartrees.
 NAtoms=    3 NActive=    3 NUniq=    2 SFac= 1.69D+00 NAtFMM=   80 NAOKFM=F Big=F
 One-electron integrals computed using PRISM.
 NBasis=    19 RedAO= T  NBF=    10     1     3     5
 NBsUse=    19 1.00D-06 NBFU=    10     1     3     5
 Initial guess read from the read-write file.
 B after Tr=     0.000000    0.000000    0.000000
         Rot=    1.000000    0.000000    0.000000    0.000000 Ang=   0.00 deg.
 Initial guess orbital symmetries:
       Occupied  (A1) (A1) (B2) (A1) (B1)
       Virtual   (A1) (B2) (B2) (A1) (A1) (B1) (B2) (A1) (A2) (A1)
                 (B1) (A1) (B2) (A1)
 Harris functional with IExCor=  402 diagonalized for initial guess.
 ExpMin= 1.61D-01 ExpMax= 5.48D+03 ExpMxC= 8.25D+02 IAcc=1 IRadAn=         1 AccDes= 0.00D+00
 HarFok:  IExCor=  402 AccDes= 0.00D+00 IRadAn=         1 IDoV= 1
 ScaDFX=  1.000000  1.000000  1.000000  1.000000
 FoFCou: FMM=F IPFlag=           0 FMFlag=      100000 FMFlg1=           0
         NFxFlg=           0 DoJE=T BraDBF=F KetDBF=T FulRan=T
         Omega=  0.000000  0.000000  1.000000  0.000000  0.000000 ICntrl=     500 IOpCl=  0
         NMat0=    1 NMatS0=    1 NMatT0=    0 NMatD0=    1 NMtDS0=    0 NMtDT0=    0
         I1Cent=           4 NGrid=           0.
 Petite list used in FoFCou.
 Requested convergence on RMS density matrix=1.00D-08 within 128 cycles.
 Requested convergence on MAX density matrix=1.00D-06.
 Requested convergence on             energy=1.00D-06.
 No special actions if energy rises.
 Keep R1 ints in memory in canonical form, NReq=920381.
 Integral accuracy reduced to 1.0D-05 until final iterations.
 Initial convergence to 1.0D-05 achieved.  Increase integral accuracy.
 SCF Done:  E(RB3LYP) =  -76.4089034859     A.U. after    9 cycles
             Convg  =    0.6541D-08             -V/T =  2.0075
 Calling FoFJK, ICntrl=      2127 FMM=F ISym2X=1 I1Cent= 0 IOpClX= 0 NMat=1 NMatS=1 NMatT=0.
 ***** Axes restored to original set *****
 -------------------------------------------------------------------
 Center     Atomic                   Forces (Hartrees/Bohr)
 Number     Number              X              Y              Z
 -------------------------------------------------------------------
      1        8          -0.005394164    0.000000000   -0.003502549
      2        1           0.000646970    0.000000000    0.004908586
      3        1           0.004747194    0.000000000   -0.001406037
 -------------------------------------------------------------------
 Cartesian Forces:  Max     0.005394164 RMS     0.003169129

 GradGradGradGradGradGradGradGradGradGradGradGradGradGradGradGradGradGrad
 Berny optimization.
 Using GEDIIS/GDIIS optimizer.
 Internal  Forces:  Max     0.004946352 RMS     0.004045021
 Search for a local minimum.
 Step number   2 out of a maximum of   20
 All quantities printed in internal units (Hartrees-Bohrs-Radians)
 Mixed Optimization -- RFO/linear search
 Update second derivatives using D2CorX and points    1    2
 DE= -2.64D-03 DEPred=-2.63D-03 R= 1.00D+00
 SS=  1.41D+00  RLast= 1.75D-01 DXNew= 5.0454D-01 5.2592D-01
 Trust test= 1.00D+00 RLast= 1.75D-01 DXMaxT set to 5.05D-01
 The second derivative matrix:
                          R1        R2        A1
           R1           0.55171
           R2           0.01170   0.55171
           A1           0.02757   0.02757   0.16080
 Use linear search instead of GDIIS.
     Eigenvalues ---    0.15706   0.54001   0.56715
 RFO step:  Lambda=-9.16685033D-05 EMin= 1.57059458D-01
 Quartic linear search produced a step of  0.00067.
 Iteration  1 RMS(Cart)=  0.00557140 RMS(Int)=  0.00001676
 Iteration  2 RMS(Cart)=  0.00001854 RMS(Int)=  0.00000000
 Iteration  3 RMS(Cart)=  0.00000000 RMS(Int)=  0.00000000
 ClnCor:  largest displacement from symmetrization is 1.86D-15 for atom     3.
 Variable       Old X    -DE/DX   Delta X   Delta X   Delta X     New X
                                 (Linear)    (Quad)   (Total)
    R1        1.82075   0.00495   0.00000   0.00905   0.00905   1.82979
    R2        1.82075   0.00495   0.00000   0.00905   0.00905   1.82979
    A1        1.81473  -0.00039  -0.00012  -0.00541  -0.00553   1.80921
         Item               Value     Threshold  Converged?
 Maximum Force            0.004946     0.000450     NO 
 RMS     Force            0.004045     0.000300     NO 
 Maximum Displacement     0.005340     0.001800     NO 
 RMS     Displacement     0.005567     0.001200     NO 
 Predicted change in Energy=-4.585419D-05
 GradGradGradGradGradGradGradGradGradGradGradGradGradGradGradGradGradGrad

                          Input orientation:                          
 ---------------------------------------------------------------------
 Center     Atomic      Atomic             Coordinates (Angstroms)
 Number     Number       Type             X           Y           Z
 ---------------------------------------------------------------------
      1          8           0       -0.040144    0.000000   -0.026067
      2          1           0        0.047167    0.000000    0.938275
      3          1           0        0.876300    0.000000   -0.338647
 ---------------------------------------------------------------------
                    Distance matrix (angstroms):
                    1          2          3
     1  O    0.000000
     2  H    0.968286   0.000000
     3  H    0.968286   1.522495   0.000000
 Stoichiometry    H2O
 Framework group  C2V[C2(O),SGV(H2)]
 Deg. of freedom     2
 Full point group                 C2V     NOp   4
 Largest Abelian subgroup         C2V     NOp   4
 Largest concise Abelian subgroup C2      NOp   2
                         Standard orientation:                         
 ---------------------------------------------------------------------
 Center     Atomic      Atomic             Coordinates (Angstroms)
 Number     Number       Type             X           Y           Z
 ---------------------------------------------------------------------
      1          8           0        0.000000    0.000000    0.119679
      2          1           0        0.000000    0.761248   -0.478718
      3          1           0        0.000000   -0.761248   -0.478718
 ---------------------------------------------------------------------
 Rotational constants (GHZ):    788.4390730    432.6635252    279.3613160
 Standard basis: 6-31G(d) (6D, 7F)
 There are    10 symmetry adapted basis functions of A1  symmetry.
 There are     1 symmetry adapted basis functions of A2  symmetry.
 There are     3 symmetry adapted basis functions of B1  symmetry.
 There are     5 symmetry adapted basis functions of B2  symmetry.
 Integral buffers will be    131072 words long.
 Raffenetti 2 integral format.
 Two-electron integral symmetry is turned on.
    19 basis functions,    36 primitive gaussians,    19 cartesian basis functions
     5 alpha electrons        5 beta electrons
       nuclear repulsion energy         9.0917224653 Hartrees.
 NAtoms=    3 NActive=    3 NUniq=    2 SFac= 1.69D+00 NAtFMM=   80 NAOKFM=F Big=F
 One-electron integrals computed using PRISM.
 NBasis=    19 RedAO= T  NBF=    10     1     3     5
 NBsUse=    19 1.00D-06 NBFU=    10     1     3     5
 Initial guess read from the read-write file.
 B after Tr=     0.000000    0.000000    0.000000
         Rot=    1.000000    0.000000    0.000000    0.000000 Ang=   0.00 deg.
 Initial guess orbital symmetries:
       Occupied  (A1) (A1) (B2) (A1) (B1)
       Virtual   (A1) (B2) (B2) (A1) (B1) (A1) (B2) (A1) (A1) (A2)
                 (B1) (A1) (B2) (A1)
 Requested convergence on RMS density matrix=1.00D-08 within 128 cycles.
 Requested convergence on MAX density matrix=1.00D-06.
 Requested convergence on             energy=1.00D-06.
 No special actions if energy rises.
 Keep R1 ints in memory in canonical form, NReq=920381.
 SCF Done:  E(RB3LYP) =  -76.4089529641     A.U. after    7 cycles
             Convg  =    0.1265D-08             -V/T =  2.0078
 Calling FoFJK, ICntrl=      2127 FMM=F ISym2X=1 I1Cent= 0 IOpClX= 0 NMat=1 NMatS=1 NMatT=0.
 ***** Axes restored to original set *****
 -------------------------------------------------------------------
 Center     Atomic                   Forces (Hartrees/Bohr)
 Number     Number              X              Y              Z
 -------------------------------------------------------------------
      1        8          -0.000432389    0.000000000   -0.000280760
      2        1           0.000024523    0.000000000    0.000435567
      3        1           0.000407866    0.000000000   -0.000154807
 -------------------------------------------------------------------
 Cartesian Forces:  Max     0.000435567 RMS     0.000268002

 GradGradGradGradGradGradGradGradGradGradGradGradGradGradGradGradGradGrad
 Berny optimization.
 Using GEDIIS/GDIIS optimizer.
 Internal  Forces:  Max     0.000436003 RMS     0.000356341
 Search for a local minimum.
 Step number   3 out of a maximum of   20
 All quantities printed in internal units (Hartrees-Bohrs-Radians)
 Mixed Optimization -- En-DIIS/RFO-DIIS
 Update second derivatives using D2CorX and points    1    2    3
 DE= -4.95D-05 DEPred=-4.59D-05 R= 1.08D+00
 SS=  1.41D+00  RLast= 1.39D-02 DXNew= 8.4853D-01 4.1816D-02
 Trust test= 1.08D+00 RLast= 1.39D-02 DXMaxT set to 5.05D-01
 The second derivative matrix:
                          R1        R2        A1
           R1           0.52725
           R2          -0.01276   0.52725
           A1           0.02624   0.02624   0.16181
 Use linear search instead of GDIIS.
     Eigenvalues ---    0.15795   0.51835   0.54001
 RFO step:  Lambda=-2.44570466D-08 EMin= 1.57948657D-01
 Quartic linear search produced a step of  0.09391.
 Iteration  1 RMS(Cart)=  0.00057684 RMS(Int)=  0.00000004
 Iteration  2 RMS(Cart)=  0.00000004 RMS(Int)=  0.00000000
 ClnCor:  largest displacement from symmetrization is 2.19D-15 for atom     3.
 Variable       Old X    -DE/DX   Delta X   Delta X   Delta X     New X
                                 (Linear)    (Quad)   (Total)
    R1        1.82979   0.00044   0.00085   0.00002   0.00087   1.83066
    R2        1.82979   0.00044   0.00085   0.00002   0.00087   1.83066
    A1        1.80921   0.00003  -0.00052   0.00038  -0.00014   1.80907
         Item               Value     Threshold  Converged?
 Maximum Force            0.000436     0.000450     YES
 RMS     Force            0.000356     0.000300     NO 
 Maximum Displacement     0.000622     0.001800     YES
 RMS     Displacement     0.000577     0.001200     YES
 Predicted change in Energy=-3.702746D-07
 GradGradGradGradGradGradGradGradGradGradGradGradGradGradGradGradGradGrad

                          Input orientation:                          
 ---------------------------------------------------------------------
 Center     Atomic      Atomic             Coordinates (Angstroms)
 Number     Number       Type             X           Y           Z
 ---------------------------------------------------------------------
      1          8           0       -0.040333    0.000000   -0.026189
      2          1           0        0.047087    0.000000    0.938603
      3          1           0        0.876568    0.000000   -0.338854
 ---------------------------------------------------------------------
                    Distance matrix (angstroms):
                    1          2          3
     1  O    0.000000
     2  H    0.968745   0.000000
     3  H    0.968745   1.523134   0.000000
 Stoichiometry    H2O
 Framework group  C2V[C2(O),SGV(H2)]
 Deg. of freedom     2
 Full point group                 C2V     NOp   4
 Largest Abelian subgroup         C2V     NOp   4
 Largest concise Abelian subgroup C2      NOp   2
                         Standard orientation:                         
 ---------------------------------------------------------------------
 Center     Atomic      Atomic             Coordinates (Angstroms)
 Number     Number       Type             X           Y           Z
 ---------------------------------------------------------------------
      1          8           0        0.000000    0.000000    0.119747
      2          1           0        0.000000    0.761567   -0.478987
      3          1           0        0.000000   -0.761567   -0.478987
 ---------------------------------------------------------------------
 Rotational constants (GHZ):    787.5534066    432.3006384    279.0988330
 Standard basis: 6-31G(d) (6D, 7F)
 There are    10 symmetry adapted basis functions of A1  symmetry.
 There are     1 symmetry adapted basis functions of A2  symmetry.
 There are     3 symmetry adapted basis functions of B1  symmetry.
 There are     5 symmetry adapted basis functions of B2  symmetry.
 Integral buffers will be    131072 words long.
 Raffenetti 2 integral format.
 Two-electron integral symmetry is turned on.
    19 basis functions,    36 primitive gaussians,    19 cartesian basis functions
     5 alpha electrons        5 beta electrons
       nuclear repulsion energy         9.0874334291 Hartrees.
 NAtoms=    3 NActive=    3 NUniq=    2 SFac= 1.69D+00 NAtFMM=   80 NAOKFM=F Big=F
 One-electron integrals computed using PRISM.
 NBasis=    19 RedAO= T  NBF=    10     1     3     5
 NBsUse=    19 1.00D-06 NBFU=    10     1     3     5
 Initial guess read from the read-write file.
 B after Tr=     0.000000    0.000000    0.000000
         Rot=    1.000000    0.000000    0.000000    0.000000 Ang=   0.00 deg.
 Initial guess orbital symmetries:
       Occupied  (A1) (A1) (B2) (A1) (B1)
       Virtual   (A1) (B2) (B2) (A1) (B1) (A1) (B2) (A1) (A1) (A2)
                 (B1) (A1) (B2) (A1)
 Requested convergence on RMS density matrix=1.00D-08 within 128 cycles.
 Requested convergence on MAX density matrix=1.00D-06.
 Requested convergence on             energy=1.00D-06.
 No special actions if energy rises.
 Keep R1 ints in memory in canonical form, NReq=920381.
 SCF Done:  E(RB3LYP) =  -76.4089533400     A.U. after    6 cycles
             Convg  =    0.2529D-08             -V/T =  2.0078
 Calling FoFJK, ICntrl=      2127 FMM=F ISym2X=1 I1Cent= 0 IOpClX= 0 NMat=1 NMatS=1 NMatT=0.
 ***** Axes restored to original set *****
 -------------------------------------------------------------------
 Center     Atomic                   Forces (Hartrees/Bohr)
 Number     Number              X              Y              Z
 -------------------------------------------------------------------
      1        8          -0.000001002    0.000000000   -0.000000651
      2        1           0.000001002    0.000000000   -0.000000445
      3        1           0.000000001    0.000000000    0.000001096
 -------------------------------------------------------------------
 Cartesian Forces:  Max     0.000001096 RMS     0.000000652

 GradGradGradGradGradGradGradGradGradGradGradGradGradGradGradGradGradGrad
 Berny optimization.
 Using GEDIIS/GDIIS optimizer.
 Internal  Forces:  Max     0.000001900 RMS     0.000001134
 Search for a local minimum.
 Step number   4 out of a maximum of   20
 All quantities printed in internal units (Hartrees-Bohrs-Radians)
 Mixed Optimization -- En-DIIS/RFO-DIIS
 Swaping is turned off.
 Update second derivatives using D2CorX and points    1    2    3    4
 DE= -3.76D-07 DEPred=-3.70D-07 R= 1.02D+00
 Trust test= 1.02D+00 RLast= 1.23D-03 DXMaxT set to 5.05D-01
 The second derivative matrix:
                          R1        R2        A1
           R1           0.52390
           R2          -0.01611   0.52390
           A1           0.02967   0.02967   0.16184
     Eigenvalues ---    0.15683   0.51280   0.54001
 En-DIIS/RFO-DIIS IScMMF=        0 using points:     4    3
 RFO step:  Lambda= 0.00000000D+00.
 DIIS coeffs:      0.99954      0.00046
 Iteration  1 RMS(Cart)=  0.00000673 RMS(Int)=  0.00000000
 Iteration  2 RMS(Cart)=  0.00000000 RMS(Int)=  0.00000000
 ClnCor:  largest displacement from symmetrization is 9.16D-16 for atom     3.
 Variable       Old X    -DE/DX   Delta X   Delta X   Delta X     New X
                                  (DIIS)     (GDIIS)  (Total)
    R1        1.83066   0.00000   0.00000   0.00000   0.00000   1.83066
    R2        1.83066   0.00000   0.00000   0.00000   0.00000   1.83066
    A1        1.80907   0.00000   0.00000  -0.00001  -0.00001   1.80906
         Item               Value     Threshold  Converged?
 Maximum Force            0.000002     0.000450     YES
 RMS     Force            0.000001     0.000300     YES
 Maximum Displacement     0.000007     0.001800     YES
 RMS     Displacement     0.000007     0.001200     YES
 Predicted change in Energy=-1.114794D-11
 Optimization completed.
    -- Stationary point found.
                           ----------------------------
                           !   Optimized Parameters   !
                           ! (Angstroms and Degrees)  !
 --------------------------                            --------------------------
 ! Name  Definition              Value          Derivative Info.                !
 --------------------------------------------------------------------------------
 ! R1    R(1,2)                  0.9687         -DE/DX =    0.0                 !
 ! R2    R(1,3)                  0.9687         -DE/DX =    0.0                 !
 ! A1    A(2,1,3)              103.6521         -DE/DX =    0.0                 !
 --------------------------------------------------------------------------------
 GradGradGradGradGradGradGradGradGradGradGradGradGradGradGradGradGradGrad

                          Input orientation:                          
 ---------------------------------------------------------------------
 Center     Atomic      Atomic             Coordinates (Angstroms)
 Number     Number       Type             X           Y           Z
 ---------------------------------------------------------------------
      1          8           0       -0.040333    0.000000   -0.026189
      2          1           0        0.047087    0.000000    0.938603
      3          1           0        0.876568    0.000000   -0.338854
 ---------------------------------------------------------------------
                    Distance matrix (angstroms):
                    1          2          3
     1  O    0.000000
     2  H    0.968745   0.000000
     3  H    0.968745   1.523134   0.000000
 Stoichiometry    H2O
 Framework group  C2V[C2(O),SGV(H2)]
 Deg. of freedom     2
 Full point group                 C2V     NOp   4
 Largest Abelian subgroup         C2V     NOp   4
 Largest concise Abelian subgroup C2      NOp   2
                         Standard orientation:                         
 ---------------------------------------------------------------------
 Center     Atomic      Atomic             Coordinates (Angstroms)
 Number     Number       Type             X           Y           Z
 ---------------------------------------------------------------------
      1          8           0        0.000000    0.000000    0.119747
      2          1           0        0.000000    0.761567   -0.478987
      3          1           0        0.000000   -0.761567   -0.478987
 ---------------------------------------------------------------------
 Rotational constants (GHZ):    787.5534066    432.3006384    279.0988330

 **********************************************************************

            Population analysis using the SCF density.

 **********************************************************************

 Orbital symmetries:
       Occupied  (A1) (A1) (B2) (A1) (B1)
       Virtual   (A1) (B2) (B2) (A1) (B1) (A1) (B2) (A1) (A1) (A2)
                 (B1) (A1) (B2) (A1)
 The electronic state is 1-A1.
 Alpha  occ. eigenvalues --  -19.13817  -0.99787  -0.51713  -0.37222  -0.29119
 Alpha virt. eigenvalues --    0.06259   0.14811   0.77245   0.86091   0.89078
 Alpha virt. eigenvalues --    0.89509   1.06578   1.19343   1.72910   1.74638
 Alpha virt. eigenvalues --    1.77981   2.28055   2.57707   3.55189
          Condensed to atoms (all electrons):
              1          2          3
     1  O    8.289172   0.242572   0.242572
     2  H    0.242572   0.393677  -0.023407
     3  H    0.242572  -0.023407   0.393677
 Mulliken atomic charges:
              1
     1  O   -0.774316
     2  H    0.387158
     3  H    0.387158
 Sum of Mulliken atomic charges =   0.00000
 Mulliken charges with hydrogens summed into heavy atoms:
              1
     1  O    0.000000
 Sum of Mulliken charges with hydrogens summed into heavy atoms =   0.00000
 Electronic spatial extent (au):  <R**2>=             19.1867
 Charge=              0.0000 electrons
 Dipole moment (field-independent basis, Debye):
    X=              0.0000    Y=              0.0000    Z=             -2.0954  Tot=              2.0954
 Quadrupole moment (field-independent basis, Debye-Ang):
   XX=             -7.2039   YY=             -4.2865   ZZ=             -5.9898
   XY=              0.0000   XZ=              0.0000   YZ=              0.0000
 Traceless Quadrupole moment (field-independent basis, Debye-Ang):
   XX=             -1.3772   YY=              1.5402   ZZ=             -0.1631
   XY=              0.0000   XZ=              0.0000   YZ=              0.0000
 Octapole moment (field-independent basis, Debye-Ang**2):
  XXX=              0.0000  YYY=              0.0000  ZZZ=             -1.2171  XYY=              0.0000
  XXY=              0.0000  XXZ=             -0.3236  XZZ=              0.0000  YZZ=              0.0000
  YYZ=             -1.2129  XYZ=              0.0000
 Hexadecapole moment (field-independent basis, Debye-Ang**3):
 XXXX=             -5.2143 YYYY=             -6.0612 ZZZZ=             -6.2948 XXXY=              0.0000
 XXXZ=              0.0000 YYYX=              0.0000 YYYZ=              0.0000 ZZZX=              0.0000
 ZZZY=              0.0000 XXYY=             -2.1174 XXZZ=             -1.9681 YYZZ=             -1.7416
 XXYZ=              0.0000 YYXZ=              0.0000 ZZXY=              0.0000
 N-N= 9.087433429099D+00 E-N=-1.987551030484D+02  KE= 7.581946407847D+01
 Symmetry A1   KE= 6.765919327350D+01
 Symmetry A2   KE= 6.035221590723D-35
 Symmetry B1   KE= 4.599938438868D+00
 Symmetry B2   KE= 3.560332366101D+00
 B after Tr=     0.166924    0.000000    0.108387
         Rot=   -0.337421    0.621407   -0.621407   -0.337421 Ang= 219.44 deg.
 Final structure in terms of initial Z-matrix:
 O
 H,1,B1
 H,1,B2,2,A1
      Variables:
 B1=0.9687447
 B2=0.9687447
 A1=103.65209085
 1\1\GINC-BUCHNER\FOpt\RB3LYP\6-31G(d)\H2O1\WEBMODEMO\20-Mar-2015\0\\#N
  B3LYP/6-31G(d) OPT FREQ Geom=Connectivity\\H2O\\0,1\O,-0.0403325373,0
 .,-0.0261887984\H,0.0470869057,0.,0.9386034803\H,0.8765680557,0.,-0.33
 88541184\\Version=AM64L-G09RevA.02\State=1-A1\HF=-76.4089533\RMSD=2.52
 9e-09\RMSF=6.524e-07\Dipole=0.6914101,0.,0.4489477\Quadrupole=0.254342
 2,-1.0238902,0.769548,0.,-0.5783979,0.\PG=C02V [C2(O1),SGV(H2)]\\@


 THERE IS NO CURE FOR BIRTH AND DEATH SAVE TO ENJOY THE INTERVAL.

                               -- GEORGE SANTAYANA
 Job cpu time:  0 days  0 hours  0 minutes  6.8 seconds.
 File lengths (MBytes):  RWF=      5 Int=      0 D2E=      0 Chk=      1 Scr=      1
 Normal termination of Gaussian 09 at Fri Mar 20 10:51:36 2015.
 Link1:  Proceeding to internal job step number  2.
 --------------------------------------------------------------------
 #N Geom=AllCheck Guess=TCheck SCRF=Check GenChk RB3LYP/6-31G(d) Freq
 --------------------------------------------------------------------
 1/10=4,29=7,30=1,38=1,40=1/1,3;
 2/12=2,40=1/2;
 3/5=1,6=6,7=1,11=2,14=-4,16=1,25=1,30=1,70=2,71=2,74=-5,116=1/1,2,3;
 4/5=101/1;
 5/5=2,98=1/2;
 8/6=4,10=90,11=11/1;
 11/6=1,8=1,9=11,15=111,16=1/1,2,10;
 10/6=1/2;
 6/7=2,8=2,9=2,10=2,18=1,28=1/1;
 7/8=1,10=1,25=1/1,2,3,16;
 1/10=4,30=1/3;
 99//99;
 ---
 H2O
 ---
 Redundant internal coordinates taken from checkpoint file:
 /scratch/webmodemo/webmo-4350/188726/Gau-18138.chk
 Charge =  0 Multiplicity = 1
 O,0,-0.0403325373,0.,-0.0261887984
 H,0,0.0470869057,0.,0.9386034803
 H,0,0.8765680557,0.,-0.3388541184
 Recover connectivity data from disk.

 GradGradGradGradGradGradGradGradGradGradGradGradGradGradGradGradGradGrad
 Berny optimization.
 Initialization pass.
                           ----------------------------
                           !    Initial Parameters    !
                           ! (Angstroms and Degrees)  !
 --------------------------                            --------------------------
 ! Name  Definition              Value          Derivative Info.                !
 --------------------------------------------------------------------------------
 ! R1    R(1,2)                  0.9687         calculate D2E/DX2 analytically  !
 ! R2    R(1,3)                  0.9687         calculate D2E/DX2 analytically  !
 ! A1    A(2,1,3)              103.6521         calculate D2E/DX2 analytically  !
 --------------------------------------------------------------------------------
 Trust Radius=3.00D-01 FncErr=1.00D-07 GrdErr=1.00D-07
 Number of steps in this run=   2 maximum allowed number of steps=   2.
 GradGradGradGradGradGradGradGradGradGradGradGradGradGradGradGradGradGrad

                          Input orientation:                          
 ---------------------------------------------------------------------
 Center     Atomic      Atomic             Coordinates (Angstroms)
 Number     Number       Type             X           Y           Z
 ---------------------------------------------------------------------
      1          8           0       -0.040333    0.000000   -0.026189
      2          1           0        0.047087    0.000000    0.938603
      3          1           0        0.876568    0.000000   -0.338854
 ---------------------------------------------------------------------
                    Distance matrix (angstroms):
                    1          2          3
     1  O    0.000000
     2  H    0.968745   0.000000
     3  H    0.968745   1.523134   0.000000
 Stoichiometry    H2O
 Framework group  C2V[C2(O),SGV(H2)]
 Deg. of freedom     2
 Full point group                 C2V     NOp   4
 Largest Abelian subgroup         C2V     NOp   4
 Largest concise Abelian subgroup C2      NOp   2
                         Standard orientation:                         
 ---------------------------------------------------------------------
 Center     Atomic      Atomic             Coordinates (Angstroms)
 Number     Number       Type             X           Y           Z
 ---------------------------------------------------------------------
      1          8           0        0.000000    0.000000    0.119747
      2          1           0        0.000000    0.761567   -0.478987
      3          1           0        0.000000   -0.761567   -0.478987
 ---------------------------------------------------------------------
 Rotational constants (GHZ):    787.5534066    432.3006384    279.0988330
 Standard basis: 6-31G(d) (6D, 7F)
 There are    10 symmetry adapted basis functions of A1  symmetry.
 There are     1 symmetry adapted basis functions of A2  symmetry.
 There are     3 symmetry adapted basis functions of B1  symmetry.
 There are     5 symmetry adapted basis functions of B2  symmetry.
 Integral buffers will be    131072 words long.
 Raffenetti 2 integral format.
 Two-electron integral symmetry is turned on.
    19 basis functions,    36 primitive gaussians,    19 cartesian basis functions
     5 alpha electrons        5 beta electrons
       nuclear repulsion energy         9.0874334291 Hartrees.
 NAtoms=    3 NActive=    3 NUniq=    2 SFac= 1.69D+00 NAtFMM=   80 NAOKFM=F Big=F
 One-electron integrals computed using PRISM.
 NBasis=    19 RedAO= T  NBF=    10     1     3     5
 NBsUse=    19 1.00D-06 NBFU=    10     1     3     5
 Initial guess read from the checkpoint file:  /scratch/webmodemo/webmo-4350/1887
 26/Gau-18138.chk
 B after Tr=     0.000000    0.000000    0.000000
         Rot=    1.000000    0.000000    0.000000    0.000000 Ang=   0.00 deg.
 Initial guess orbital symmetries:
       Occupied  (A1) (A1) (B2) (A1) (B1)
       Virtual   (A1) (B2) (B2) (A1) (B1) (A1) (B2) (A1) (A1) (A2)
                 (B1) (A1) (B2) (A1)
 Requested convergence on RMS density matrix=1.00D-08 within 128 cycles.
 Requested convergence on MAX density matrix=1.00D-06.
 Requested convergence on             energy=1.00D-06.
 No special actions if energy rises.
 Keep R1 ints in memory in canonical form, NReq=920381.
 SCF Done:  E(RB3LYP) =  -76.4089533400     A.U. after    1 cycles
             Convg  =    0.1400D-09             -V/T =  2.0078
 Range of M.O.s used for correlation:     1    19
 NBasis=    19 NAE=     5 NBE=     5 NFC=     0 NFV=     0
 NROrb=     19 NOA=     5 NOB=     5 NVA=    14 NVB=    14
 Symmetrizing basis deriv contribution to polar:
 IMax=3 JMax=2 DiffMx= 0.00D+00
 G2DrvN: will do     4 centers at a time, making    1 passes doing MaxLOS=2.
 Calling FoFCou, ICntrl=  3107 FMM=F I1Cent=   0 AccDes= 0.00D+00.
 FoFDir/FoFCou used for L=0 through L=2.
 End of G2Drv Frequency-dependent properties file   721 does not exist.
 End of G2Drv Frequency-dependent properties file   722 does not exist.
          IDoAtm=111
          Differentiating once with respect to electric field.
                with respect to dipole field.
          Differentiating once with respect to nuclear coordinates.
          Keep R1 ints in memory in canonical form, NReq=839289.
          There are     9 degrees of freedom in the 1st order CPHF.  IDoFFX=4.
      9 vectors produced by pass  0 Test12= 7.78D-16 1.11D-08 XBig12= 3.33D+00 1.28D+00.
 AX will form     9 AO Fock derivatives at one time.
      9 vectors produced by pass  1 Test12= 7.78D-16 1.11D-08 XBig12= 3.39D-01 2.91D-01.
      9 vectors produced by pass  2 Test12= 7.78D-16 1.11D-08 XBig12= 2.95D-03 2.76D-02.
      9 vectors produced by pass  3 Test12= 7.78D-16 1.11D-08 XBig12= 2.73D-06 8.51D-04.
      7 vectors produced by pass  4 Test12= 7.78D-16 1.11D-08 XBig12= 1.06D-09 1.65D-05.
      2 vectors produced by pass  5 Test12= 7.78D-16 1.11D-08 XBig12= 2.78D-13 1.97D-07.
 Inverted reduced A of dimension    45 with in-core refinement.
 Isotropic polarizability for W=    0.000000        5.22 Bohr**3.
 End of Minotr Frequency-dependent properties file   721 does not exist.
 End of Minotr Frequency-dependent properties file   722 does not exist.

 **********************************************************************

            Population analysis using the SCF density.

 **********************************************************************

 Orbital symmetries:
       Occupied  (A1) (A1) (B2) (A1) (B1)
       Virtual   (A1) (B2) (B2) (A1) (B1) (A1) (B2) (A1) (A1) (A2)
                 (B1) (A1) (B2) (A1)
 The electronic state is 1-A1.
 Alpha  occ. eigenvalues --  -19.13817  -0.99787  -0.51713  -0.37222  -0.29119
 Alpha virt. eigenvalues --    0.06259   0.14811   0.77245   0.86091   0.89078
 Alpha virt. eigenvalues --    0.89509   1.06578   1.19343   1.72910   1.74638
 Alpha virt. eigenvalues --    1.77981   2.28055   2.57707   3.55189
          Condensed to atoms (all electrons):
              1          2          3
     1  O    8.289172   0.242572   0.242572
     2  H    0.242572   0.393677  -0.023407
     3  H    0.242572  -0.023407   0.393677
 Mulliken atomic charges:
              1
     1  O   -0.774316
     2  H    0.387158
     3  H    0.387158
 Sum of Mulliken atomic charges =   0.00000
 Mulliken charges with hydrogens summed into heavy atoms:
              1
     1  O    0.000000
 Sum of Mulliken charges with hydrogens summed into heavy atoms =   0.00000
 APT atomic charges:
              1
     1  O   -0.491180
     2  H    0.245590
     3  H    0.245590
 Sum of APT charges=   0.00000
 APT Atomic charges with hydrogens summed into heavy atoms:
              1
     1  O    0.000000
     2  H    0.000000
     3  H    0.000000
 Sum of APT charges=   0.00000
 Electronic spatial extent (au):  <R**2>=             19.1867
 Charge=              0.0000 electrons
 Dipole moment (field-independent basis, Debye):
    X=              0.0000    Y=              0.0000    Z=             -2.0954  Tot=              2.0954
 Quadrupole moment (field-independent basis, Debye-Ang):
   XX=             -7.2039   YY=             -4.2865   ZZ=             -5.9898
   XY=              0.0000   XZ=              0.0000   YZ=              0.0000
 Traceless Quadrupole moment (field-independent basis, Debye-Ang):
   XX=             -1.3772   YY=              1.5402   ZZ=             -0.1631
   XY=              0.0000   XZ=              0.0000   YZ=              0.0000
 Octapole moment (field-independent basis, Debye-Ang**2):
  XXX=              0.0000  YYY=              0.0000  ZZZ=             -1.2171  XYY=              0.0000
  XXY=              0.0000  XXZ=             -0.3236  XZZ=              0.0000  YZZ=              0.0000
  YYZ=             -1.2129  XYZ=              0.0000
 Hexadecapole moment (field-independent basis, Debye-Ang**3):
 XXXX=             -5.2143 YYYY=             -6.0612 ZZZZ=             -6.2948 XXXY=              0.0000
 XXXZ=              0.0000 YYYX=              0.0000 YYYZ=              0.0000 ZZZX=              0.0000
 ZZZY=              0.0000 XXYY=             -2.1174 XXZZ=             -1.9681 YYZZ=             -1.7416
 XXYZ=              0.0000 YYXZ=              0.0000 ZZXY=              0.0000
 N-N= 9.087433429099D+00 E-N=-1.987551030208D+02  KE= 7.581946406540D+01
 Symmetry A1   KE= 6.765919326511D+01
 Symmetry A2   KE= 9.285538699443D-35
 Symmetry B1   KE= 4.599938434052D+00
 Symmetry B2   KE= 3.560332366235D+00
  Exact polarizability:   2.830   0.000   7.395   0.000   0.000   5.424
 Approx polarizability:   3.082   0.000   8.972   0.000   0.000   6.755
 Calling FoFJK, ICntrl=    100127 FMM=F ISym2X=1 I1Cent= 0 IOpClX= 0 NMat=1 NMatS=1 NMatT=0.
 Full mass-weighted force constant matrix:
 Low frequencies ---  -48.7975  -44.1006    0.0013    0.0014    0.0019    7.1445
 Low frequencies --- 1713.1024 3727.3465 3849.3872
 Diagonal vibrational polarizability:
        0.0000000       0.0351989       0.6982295
 Harmonic frequencies (cm**-1), IR intensities (KM/Mole), Raman scattering
 activities (A**4/AMU), depolarization ratios for plane and unpolarized
 incident light, reduced masses (AMU), force constants (mDyne/A),
 and normal coordinates:
                     1                      2                      3
                    A1                     A1                     B2
 Frequencies --  1713.1024              3727.3465              3849.3872
 Red. masses --     1.0825                 1.0454                 1.0810
 Frc consts  --     1.8717                 8.5568                 9.4376
 IR Inten    --    75.7855                 1.6941                19.3811
  Atom  AN      X      Y      Z        X      Y      Z        X      Y      Z
     1   8     0.00   0.00   0.07     0.00   0.00   0.05     0.00   0.07   0.00
     2   1     0.00  -0.43  -0.56     0.00   0.58  -0.40     0.00  -0.55   0.44
     3   1     0.00   0.43  -0.56     0.00  -0.58  -0.40     0.00  -0.55  -0.44

 -------------------
 - Thermochemistry -
 -------------------
 Temperature   298.150 Kelvin.  Pressure   1.00000 Atm.
 Atom     1 has atomic number  8 and mass  15.99491
 Atom     2 has atomic number  1 and mass   1.00783
 Atom     3 has atomic number  1 and mass   1.00783
 Molecular mass:    18.01056 amu.
 Principal axes and moments of inertia in atomic units:
                           1         2         3
     Eigenvalues --     2.29158   4.17474   6.46632
           X            0.00000   0.00000   1.00000
           Y            1.00000   0.00000   0.00000
           Z            0.00000   1.00000   0.00000
 This molecule is an asymmetric top.
 Rotational symmetry number  2.
 Rotational temperatures (Kelvin)     37.79656    20.74713    13.39462
 Rotational constants (GHZ):         787.55341   432.30064   279.09883
 Zero-point vibrational energy      55565.6 (Joules/Mol)
                                   13.28049 (Kcal/Mol)
 Vibrational temperatures:   2464.77  5362.81  5538.40
          (Kelvin)
 
 Zero-point correction=                           0.021164 (Hartree/Particle)
 Thermal correction to Energy=                    0.023998
 Thermal correction to Enthalpy=                  0.024943
 Thermal correction to Gibbs Free Energy=         0.003496
 Sum of electronic and zero-point Energies=            -76.387790
 Sum of electronic and thermal Energies=               -76.384955
 Sum of electronic and thermal Enthalpies=             -76.384011
 Sum of electronic and thermal Free Energies=          -76.405457
 
                     E (Thermal)             CV                S
                      KCal/Mol        Cal/Mol-Kelvin    Cal/Mol-Kelvin
 Total                   15.059              5.997             45.137
 Electronic               0.000              0.000              0.000
 Translational            0.889              2.981             34.608
 Rotational               0.889              2.981             10.524
 Vibrational             13.282              0.035              0.005
                       Q            Log10(Q)             Ln(Q)
 Total Bot       0.246451D-01         -1.608269         -3.703175
 Total V=0       0.133778D+09          8.126385         18.711692
 Vib (Bot)       0.184272D-09         -9.734542        -22.414610
 Vib (V=0)       0.100026D+01          0.000112          0.000257
 Electronic      0.100000D+01          0.000000          0.000000
 Translational   0.300432D+07          6.477746         14.915562
 Rotational      0.445171D+02          1.648527          3.795873
 ***** Axes restored to original set *****
 -------------------------------------------------------------------
 Center     Atomic                   Forces (Hartrees/Bohr)
 Number     Number              X              Y              Z
 -------------------------------------------------------------------
      1        8          -0.000001003    0.000000000   -0.000000651
      2        1           0.000001002    0.000000000   -0.000000445
      3        1           0.000000001    0.000000000    0.000001096
 -------------------------------------------------------------------
 Cartesian Forces:  Max     0.000001096 RMS     0.000000653

 GradGradGradGradGradGradGradGradGradGradGradGradGradGradGradGradGradGrad
 Berny optimization.
 Internal  Forces:  Max     0.000001900 RMS     0.000001134
 Search for a local minimum.
 Step number   1 out of a maximum of    2
 All quantities printed in internal units (Hartrees-Bohrs-Radians)
 Second derivative matrix not updated -- analytic derivatives used.
 The second derivative matrix:
                          R1        R2        A1
           R1           0.51571
           R2          -0.00855   0.51571
           A1           0.03093   0.03093   0.17780
     Eigenvalues ---    0.17209   0.51287   0.52426
 Angle between quadratic step and forces=  14.38 degrees.
 Linear search not attempted -- first point.
 Iteration  1 RMS(Cart)=  0.00000613 RMS(Int)=  0.00000000
 Iteration  2 RMS(Cart)=  0.00000000 RMS(Int)=  0.00000000
 ClnCor:  largest displacement from symmetrization is 6.66D-16 for atom     3.
 Variable       Old X    -DE/DX   Delta X   Delta X   Delta X     New X
                                 (Linear)    (Quad)   (Total)
    R1        1.83066   0.00000   0.00000   0.00000   0.00000   1.83066
    R2        1.83066   0.00000   0.00000   0.00000   0.00000   1.83066
    A1        1.80907   0.00000   0.00000  -0.00001  -0.00001   1.80906
         Item               Value     Threshold  Converged?
 Maximum Force            0.000002     0.000450     YES
 RMS     Force            0.000001     0.000300     YES
 Maximum Displacement     0.000006     0.001800     YES
 RMS     Displacement     0.000006     0.001200     YES
 Predicted change in Energy=-1.015150D-11
 Optimization completed.
    -- Stationary point found.
                           ----------------------------
                           !   Optimized Parameters   !
                           ! (Angstroms and Degrees)  !
 --------------------------                            --------------------------
 ! Name  Definition              Value          Derivative Info.                !
 --------------------------------------------------------------------------------
 ! R1    R(1,2)                  0.9687         -DE/DX =    0.0                 !
 ! R2    R(1,3)                  0.9687         -DE/DX =    0.0                 !
 ! A1    A(2,1,3)              103.6521         -DE/DX =    0.0                 !
 --------------------------------------------------------------------------------
 GradGradGradGradGradGradGradGradGradGradGradGradGradGradGradGradGradGrad

 1\1\GINC-BUCHNER\Freq\RB3LYP\6-31G(d)\H2O1\WEBMODEMO\20-Mar-2015\0\\#N
  Geom=AllCheck Guess=TCheck SCRF=Check GenChk RB3LYP/6-31G(d) Freq\\H2
 O\\0,1\O,-0.0403325373,0.,-0.0261887984\H,0.0470869057,0.,0.9386034803
 \H,0.8765680557,0.,-0.3388541184\\Version=AM64L-G09RevA.02\State=1-A1\
 HF=-76.4089533\RMSD=1.400e-10\RMSF=6.525e-07\ZeroPoint=0.0211638\Therm
 al=0.0239984\Dipole=0.6914101,0.,0.4489477\DipoleDeriv=-0.3572845,0.,0
 .0340831,0.,-0.7286126,0.,0.0340831,0.,-0.387644,0.2778126,0.,-0.07796
 59,0.,0.3643063,0.,-0.0444528,0.,0.0946517,0.079472,0.,0.0438828,0.,0.
 3643063,0.,0.0103697,0.,0.2929923\Polar=6.0082578,0.,2.8300129,-0.9005
 33,0.,6.8104043\PG=C02V [C2(O1),SGV(H2)]\NImag=0\\0.51077176,0.,-0.000
 13175,-0.08907360,0.,0.59011375,-0.05366196,0.,-0.07924547,0.05379060,
 0.,0.00006587,0.,0.,-0.00007835,-0.01136579,0.,-0.49678079,0.02499210,
 0.,0.51500363,-0.45710980,0.,0.16831906,-0.00012864,0.,-0.01362631,0.4
 5723844,0.,0.00006587,0.,0.,0.00001247,0.,0.,-0.00007835,0.10043939,0.
 ,-0.09333295,0.05425336,0.,-0.01822284,-0.15469275,0.,0.11155580\\0.00
 000100,0.,0.00000065,-0.00000100,0.,0.00000045,0.,0.,-0.00000110\\\@


 You don't have to suffer to be a poet.
 Adolescence is enough suffering for anyone.
                             -- John Ciardi
 Job cpu time:  0 days  0 hours  0 minutes  3.8 seconds.
 File lengths (MBytes):  RWF=      5 Int=      0 D2E=      0 Chk=      1 Scr=      1
 Normal termination of Gaussian 09 at Fri Mar 20 10:51:40 2015.

